9547096
  -OEChem-02072609142D

136135  0     1  0  0  0  0  0999 V2000
    6.8671   -6.8450    0.0000 P   0  0  3  0  0  0  0  0  0  0  0  0
   10.3312   -6.8450    0.0000 O   0  0  0  0  0  0  0  0  0  0  0  0
   10.3312   -4.8450    0.0000 O   0  0  0  0  0  0  0  0  0  0  0  0
   11.1972   -5.3450    0.0000 O   0  0  0  0  0  0  0  0  0  0  0  0
    9.4651   -3.3450    0.0000 O   0  0  0  0  0  0  0  0  0  0  0  0
    7.7331   -6.3450    0.0000 O   0  0  0  0  0  0  0  0  0  0  0  0
    6.0010   -7.3450    0.0000 O   0  0  0  0  0  0  0  0  0  0  0  0
    6.3671   -5.9790    0.0000 O   0  0  0  0  0  0  0  0  0  0  0  0
    7.3671   -7.7110    0.0000 O   0  0  0  0  0  0  0  0  0  0  0  0
    2.5369   -7.3450    0.0000 O   0  0  0  0  0  0  0  0  0  0  0  0
    3.4030   -5.8450    0.0000 O   0  0  0  0  0  0  0  0  0  0  0  0
    4.2690   -8.3450    0.0000 N   0  0  0  0  0  0  0  0  0  0  0  0
   18.1254   -6.3450    0.0000 C   0  0  0  0  0  0  0  0  0  0  0  0
   18.9914   -6.8450    0.0000 C   0  0  0  0  0  0  0  0  0  0  0  0
   13.7953    2.1550    0.0000 C   0  0  0  0  0  0  0  0  0  0  0  0
   14.6613    2.6550    0.0000 C   0  0  0  0  0  0  0  0  0  0  0  0
   17.2594   -6.8450    0.0000 C   0  0  0  0  0  0  0  0  0  0  0  0
   19.8574   -6.3450    0.0000 C   0  0  0  0  0  0  0  0  0  0  0  0
   13.7953    1.1550    0.0000 C   0  0  0  0  0  0  0  0  0  0  0  0
   14.6613    3.6550    0.0000 C   0  0  0  0  0  0  0  0  0  0  0  0
   16.3933   -6.3450    0.0000 C   0  0  0  0  0  0  0  0  0  0  0  0
   20.7235   -6.8450    0.0000 C   0  0  0  0  0  0  0  0  0  0  0  0
   12.9292    0.6550    0.0000 C   0  0  0  0  0  0  0  0  0  0  0  0
   15.5273    4.1550    0.0000 C   0  0  0  0  0  0  0  0  0  0  0  0
   15.5273   -6.8450    0.0000 C   0  0  0  0  0  0  0  0  0  0  0  0
   21.5895   -6.3450    0.0000 C   0  0  0  0  0  0  0  0  0  0  0  0
   12.9292   -0.3450    0.0000 C   0  0  0  0  0  0  0  0  0  0  0  0
   15.5273    5.1550    0.0000 C   0  0  0  0  0  0  0  0  0  0  0  0
   14.6613   -6.3450    0.0000 C   0  0  0  0  0  0  0  0  0  0  0  0
   22.4555   -6.8450    0.0000 C   0  0  0  0  0  0  0  0  0  0  0  0
   12.0632   -0.8450    0.0000 C   0  0  0  0  0  0  0  0  0  0  0  0
   16.3933    5.6550    0.0000 C   0  0  0  0  0  0  0  0  0  0  0  0
   13.7953   -6.8450    0.0000 C   0  0  0  0  0  0  0  0  0  0  0  0
   23.3215   -6.3450    0.0000 C   0  0  0  0  0  0  0  0  0  0  0  0
   16.3933    6.6550    0.0000 C   0  0  0  0  0  0  0  0  0  0  0  0
   12.0632   -1.8450    0.0000 C   0  0  0  0  0  0  0  0  0  0  0  0
   12.9292   -6.3450    0.0000 C   0  0  0  0  0  0  0  0  0  0  0  0
   24.1876   -6.8450    0.0000 C   0  0  0  0  0  0  0  0  0  0  0  0
   17.2594    7.1550    0.0000 C   0  0  0  0  0  0  0  0  0  0  0  0
   11.1972   -2.3450    0.0000 C   0  0  0  0  0  0  0  0  0  0  0  0
   12.0632   -6.8450    0.0000 C   0  0  0  0  0  0  0  0  0  0  0  0
   25.0536   -6.3450    0.0000 C   0  0  0  0  0  0  0  0  0  0  0  0
   17.2594    8.1550    0.0000 C   0  0  0  0  0  0  0  0  0  0  0  0
   11.1972   -3.3450    0.0000 C   0  0  0  0  0  0  0  0  0  0  0  0
   25.9196   -6.8450    0.0000 C   0  0  0  0  0  0  0  0  0  0  0  0
   18.1254    8.6550    0.0000 C   0  0  0  0  0  0  0  0  0  0  0  0
   11.1972   -6.3450    0.0000 C   0  0  0  0  0  0  0  0  0  0  0  0
   10.3312   -3.8450    0.0000 C   0  0  0  0  0  0  0  0  0  0  0  0
    9.4651   -6.3450    0.0000 C   0  0  2  0  0  0  0  0  0  0  0  0
    9.4651   -5.3450    0.0000 C   0  0  0  0  0  0  0  0  0  0  0  0
    8.5991   -6.8450    0.0000 C   0  0  0  0  0  0  0  0  0  0  0  0
    5.1350   -6.8450    0.0000 C   0  0  0  0  0  0  0  0  0  0  0  0
    4.2690   -7.3450    0.0000 C   0  0  1  0  0  0  0  0  0  0  0  0
    3.4030   -6.8450    0.0000 C   0  0  0  0  0  0  0  0  0  0  0  0
   18.5239   -5.8701    0.0000 H   0  0  0  0  0  0  0  0  0  0  0  0
   17.7269   -5.8701    0.0000 H   0  0  0  0  0  0  0  0  0  0  0  0
   18.5929   -7.3200    0.0000 H   0  0  0  0  0  0  0  0  0  0  0  0
   19.3899   -7.3200    0.0000 H   0  0  0  0  0  0  0  0  0  0  0  0
   13.5832    2.7376    0.0000 H   0  0  0  0  0  0  0  0  0  0  0  0
   13.1847    2.0473    0.0000 H   0  0  0  0  0  0  0  0  0  0  0  0
   14.8733    2.0724    0.0000 H   0  0  0  0  0  0  0  0  0  0  0  0
   15.2719    2.7627    0.0000 H   0  0  0  0  0  0  0  0  0  0  0  0
   16.8608   -7.3200    0.0000 H   0  0  0  0  0  0  0  0  0  0  0  0
   17.6579   -7.3200    0.0000 H   0  0  0  0  0  0  0  0  0  0  0  0
   20.2560   -5.8701    0.0000 H   0  0  0  0  0  0  0  0  0  0  0  0
   19.4589   -5.8701    0.0000 H   0  0  0  0  0  0  0  0  0  0  0  0
   14.0073    0.5724    0.0000 H   0  0  0  0  0  0  0  0  0  0  0  0
   14.4058    1.2627    0.0000 H   0  0  0  0  0  0  0  0  0  0  0  0
   14.4492    4.2376    0.0000 H   0  0  0  0  0  0  0  0  0  0  0  0
   14.0507    3.5473    0.0000 H   0  0  0  0  0  0  0  0  0  0  0  0
   16.7919   -5.8701    0.0000 H   0  0  0  0  0  0  0  0  0  0  0  0
   15.9948   -5.8701    0.0000 H   0  0  0  0  0  0  0  0  0  0  0  0
   20.3249   -7.3200    0.0000 H   0  0  0  0  0  0  0  0  0  0  0  0
   21.1220   -7.3200    0.0000 H   0  0  0  0  0  0  0  0  0  0  0  0
   12.7172    1.2376    0.0000 H   0  0  0  0  0  0  0  0  0  0  0  0
   12.3187    0.5473    0.0000 H   0  0  0  0  0  0  0  0  0  0  0  0
   15.7394    3.5724    0.0000 H   0  0  0  0  0  0  0  0  0  0  0  0
   16.1379    4.2627    0.0000 H   0  0  0  0  0  0  0  0  0  0  0  0
   15.1288   -7.3200    0.0000 H   0  0  0  0  0  0  0  0  0  0  0  0
   15.9258   -7.3200    0.0000 H   0  0  0  0  0  0  0  0  0  0  0  0
   21.9880   -5.8701    0.0000 H   0  0  0  0  0  0  0  0  0  0  0  0
   21.1910   -5.8701    0.0000 H   0  0  0  0  0  0  0  0  0  0  0  0
   13.1413   -0.9276    0.0000 H   0  0  0  0  0  0  0  0  0  0  0  0
   13.5398   -0.2373    0.0000 H   0  0  0  0  0  0  0  0  0  0  0  0
   15.3153    5.7376    0.0000 H   0  0  0  0  0  0  0  0  0  0  0  0
   14.9167    5.0473    0.0000 H   0  0  0  0  0  0  0  0  0  0  0  0
   15.0598   -5.8701    0.0000 H   0  0  0  0  0  0  0  0  0  0  0  0
   14.2628   -5.8701    0.0000 H   0  0  0  0  0  0  0  0  0  0  0  0
   22.0570   -7.3200    0.0000 H   0  0  0  0  0  0  0  0  0  0  0  0
   22.8540   -7.3200    0.0000 H   0  0  0  0  0  0  0  0  0  0  0  0
   11.8512   -0.2624    0.0000 H   0  0  0  0  0  0  0  0  0  0  0  0
   11.4526   -0.9527    0.0000 H   0  0  0  0  0  0  0  0  0  0  0  0
   16.6054    5.0724    0.0000 H   0  0  0  0  0  0  0  0  0  0  0  0
   17.0039    5.7627    0.0000 H   0  0  0  0  0  0  0  0  0  0  0  0
   13.3967   -7.3200    0.0000 H   0  0  0  0  0  0  0  0  0  0  0  0
   14.1938   -7.3200    0.0000 H   0  0  0  0  0  0  0  0  0  0  0  0
   23.7201   -5.8701    0.0000 H   0  0  0  0  0  0  0  0  0  0  0  0
   22.9230   -5.8701    0.0000 H   0  0  0  0  0  0  0  0  0  0  0  0
   16.1813    7.2376    0.0000 H   0  0  0  0  0  0  0  0  0  0  0  0
   15.7828    6.5473    0.0000 H   0  0  0  0  0  0  0  0  0  0  0  0
   12.2753   -2.4276    0.0000 H   0  0  0  0  0  0  0  0  0  0  0  0
   12.6738   -1.7373    0.0000 H   0  0  0  0  0  0  0  0  0  0  0  0
   13.3278   -5.8701    0.0000 H   0  0  0  0  0  0  0  0  0  0  0  0
   12.5307   -5.8701    0.0000 H   0  0  0  0  0  0  0  0  0  0  0  0
   23.7890   -7.3200    0.0000 H   0  0  0  0  0  0  0  0  0  0  0  0
   24.5861   -7.3200    0.0000 H   0  0  0  0  0  0  0  0  0  0  0  0
   17.4714    6.5724    0.0000 H   0  0  0  0  0  0  0  0  0  0  0  0
   17.8699    7.2627    0.0000 H   0  0  0  0  0  0  0  0  0  0  0  0
   10.9851   -1.7624    0.0000 H   0  0  0  0  0  0  0  0  0  0  0  0
   10.5866   -2.4527    0.0000 H   0  0  0  0  0  0  0  0  0  0  0  0
   11.6647   -7.3200    0.0000 H   0  0  0  0  0  0  0  0  0  0  0  0
   12.4617   -7.3200    0.0000 H   0  0  0  0  0  0  0  0  0  0  0  0
   25.4521   -5.8701    0.0000 H   0  0  0  0  0  0  0  0  0  0  0  0
   24.6551   -5.8701    0.0000 H   0  0  0  0  0  0  0  0  0  0  0  0
   17.0473    8.7376    0.0000 H   0  0  0  0  0  0  0  0  0  0  0  0
   16.6488    8.0473    0.0000 H   0  0  0  0  0  0  0  0  0  0  0  0
   11.4092   -3.9276    0.0000 H   0  0  0  0  0  0  0  0  0  0  0  0
   11.8078   -3.2373    0.0000 H   0  0  0  0  0  0  0  0  0  0  0  0
   25.6096   -7.3819    0.0000 H   0  0  0  0  0  0  0  0  0  0  0  0
   26.4566   -7.1550    0.0000 H   0  0  0  0  0  0  0  0  0  0  0  0
   26.2296   -6.3081    0.0000 H   0  0  0  0  0  0  0  0  0  0  0  0
   18.4354    8.1181    0.0000 H   0  0  0  0  0  0  0  0  0  0  0  0
   18.6623    8.9650    0.0000 H   0  0  0  0  0  0  0  0  0  0  0  0
   17.8154    9.1919    0.0000 H   0  0  0  0  0  0  0  0  0  0  0  0
   10.0021   -6.0350    0.0000 H   0  0  0  0  0  0  0  0  0  0  0  0
    9.2531   -4.7624    0.0000 H   0  0  0  0  0  0  0  0  0  0  0  0
    8.8546   -5.4527    0.0000 H   0  0  0  0  0  0  0  0  0  0  0  0
    8.2006   -7.3200    0.0000 H   0  0  0  0  0  0  0  0  0  0  0  0
    8.9976   -7.3200    0.0000 H   0  0  0  0  0  0  0  0  0  0  0  0
    5.5335   -6.3701    0.0000 H   0  0  0  0  0  0  0  0  0  0  0  0
    4.7365   -6.3701    0.0000 H   0  0  0  0  0  0  0  0  0  0  0  0
    6.6771   -5.4420    0.0000 H   0  0  0  0  0  0  0  0  0  0  0  0
    4.8059   -7.6550    0.0000 H   0  0  0  0  0  0  0  0  0  0  0  0
    3.7321   -8.6550    0.0000 H   0  0  0  0  0  0  0  0  0  0  0  0
    4.8059   -8.6550    0.0000 H   0  0  0  0  0  0  0  0  0  0  0  0
    2.0000   -7.0350    0.0000 H   0  0  0  0  0  0  0  0  0  0  0  0
  1  6  1  0  0  0  0
  1  7  1  0  0  0  0
  1  8  1  0  0  0  0
  1  9  2  0  0  0  0
  2 47  1  0  0  0  0
 49  2  1  1  0  0  0
  3 48  1  0  0  0  0
  3 50  1  0  0  0  0
  4 47  2  0  0  0  0
  5 48  2  0  0  0  0
  6 51  1  0  0  0  0
  7 52  1  0  0  0  0
  8132  1  0  0  0  0
 10 54  1  0  0  0  0
 10136  1  0  0  0  0
 11 54  2  0  0  0  0
 53 12  1  6  0  0  0
 12134  1  0  0  0  0
 12135  1  0  0  0  0
 13 14  1  0  0  0  0
 13 17  1  0  0  0  0
 13 55  1  0  0  0  0
 13 56  1  0  0  0  0
 14 18  1  0  0  0  0
 14 57  1  0  0  0  0
 14 58  1  0  0  0  0
 15 16  1  0  0  0  0
 15 19  1  0  0  0  0
 15 59  1  0  0  0  0
 15 60  1  0  0  0  0
 16 20  1  0  0  0  0
 16 61  1  0  0  0  0
 16 62  1  0  0  0  0
 17 21  1  0  0  0  0
 17 63  1  0  0  0  0
 17 64  1  0  0  0  0
 18 22  1  0  0  0  0
 18 65  1  0  0  0  0
 18 66  1  0  0  0  0
 19 23  1  0  0  0  0
 19 67  1  0  0  0  0
 19 68  1  0  0  0  0
 20 24  1  0  0  0  0
 20 69  1  0  0  0  0
 20 70  1  0  0  0  0
 21 25  1  0  0  0  0
 21 71  1  0  0  0  0
 21 72  1  0  0  0  0
 22 26  1  0  0  0  0
 22 73  1  0  0  0  0
 22 74  1  0  0  0  0
 23 27  1  0  0  0  0
 23 75  1  0  0  0  0
 23 76  1  0  0  0  0
 24 28  1  0  0  0  0
 24 77  1  0  0  0  0
 24 78  1  0  0  0  0
 25 29  1  0  0  0  0
 25 79  1  0  0  0  0
 25 80  1  0  0  0  0
 26 30  1  0  0  0  0
 26 81  1  0  0  0  0
 26 82  1  0  0  0  0
 27 31  1  0  0  0  0
 27 83  1  0  0  0  0
 27 84  1  0  0  0  0
 28 32  1  0  0  0  0
 28 85  1  0  0  0  0
 28 86  1  0  0  0  0
 29 33  1  0  0  0  0
 29 87  1  0  0  0  0
 29 88  1  0  0  0  0
 30 34  1  0  0  0  0
 30 89  1  0  0  0  0
 30 90  1  0  0  0  0
 31 36  1  0  0  0  0
 31 91  1  0  0  0  0
 31 92  1  0  0  0  0
 32 35  1  0  0  0  0
 32 93  1  0  0  0  0
 32 94  1  0  0  0  0
 33 37  1  0  0  0  0
 33 95  1  0  0  0  0
 33 96  1  0  0  0  0
 34 38  1  0  0  0  0
 34 97  1  0  0  0  0
 34 98  1  0  0  0  0
 35 39  1  0  0  0  0
 35 99  1  0  0  0  0
 35100  1  0  0  0  0
 36 40  1  0  0  0  0
 36101  1  0  0  0  0
 36102  1  0  0  0  0
 37 41  1  0  0  0  0
 37103  1  0  0  0  0
 37104  1  0  0  0  0
 38 42  1  0  0  0  0
 38105  1  0  0  0  0
 38106  1  0  0  0  0
 39 43  1  0  0  0  0
 39107  1  0  0  0  0
 39108  1  0  0  0  0
 40 44  1  0  0  0  0
 40109  1  0  0  0  0
 40110  1  0  0  0  0
 41 47  1  0  0  0  0
 41111  1  0  0  0  0
 41112  1  0  0  0  0
 42 45  1  0  0  0  0
 42113  1  0  0  0  0
 42114  1  0  0  0  0
 43 46  1  0  0  0  0
 43115  1  0  0  0  0
 43116  1  0  0  0  0
 44 48  1  0  0  0  0
 44117  1  0  0  0  0
 44118  1  0  0  0  0
 45119  1  0  0  0  0
 45120  1  0  0  0  0
 45121  1  0  0  0  0
 46122  1  0  0  0  0
 46123  1  0  0  0  0
 46124  1  0  0  0  0
 49 50  1  0  0  0  0
 49 51  1  0  0  0  0
 49125  1  0  0  0  0
 50126  1  0  0  0  0
 50127  1  0  0  0  0
 51128  1  0  0  0  0
 51129  1  0  0  0  0
 52 53  1  0  0  0  0
 52130  1  0  0  0  0
 52131  1  0  0  0  0
 53 54  1  0  0  0  0
 53133  1  0  0  0  0
M  END
> <PUBCHEM_COMPOUND_CID>
9547096

> <PUBCHEM_COMPOUND_CANONICALIZED>
1

> <PUBCHEM_CACTVS_COMPLEXITY>
937

> <PUBCHEM_CACTVS_HBOND_ACCEPTOR>
11

> <PUBCHEM_CACTVS_HBOND_DONOR>
3

> <PUBCHEM_CACTVS_ROTATABLE_BOND>
44

> <PUBCHEM_CACTVS_SUBSKEYS>
AAADcfB+PAIAAAAAAAAAAAAAAAAAAAAAAAAAAAAAAAAAAAAAAAAAHgAQCCAACDzhgAYCCABABxAIQACQCIAAAAAAAAAAAIGAAAADABYAAAACQAAFMAACAAGIyKCAAAAAAAAAAAAAAAAAAAAAAAAAAAAAAA==

> <PUBCHEM_IUPAC_OPENEYE_NAME>
(2S)-2-amino-3-[[(2R)-2,3-di(octadecanoyloxy)propoxy]-hydroxy-phosphoryl]oxy-propanoic acid

> <PUBCHEM_IUPAC_CAS_NAME>
(2S)-2-amino-3-[[(2R)-2,3-bis(1-oxooctadecoxy)propoxy]-hydroxyphosphoryl]oxypropanoic acid

> <PUBCHEM_IUPAC_NAME_MARKUP>
(2<I>S</I>)-2-amino-3-[[(2<I>R</I>)-2,3-di(octadecanoyloxy)propoxy]-hydroxyphosphoryl]oxypropanoic acid

> <PUBCHEM_IUPAC_NAME>
(2S)-2-amino-3-[[(2R)-2,3-di(octadecanoyloxy)propoxy]-hydroxyphosphoryl]oxypropanoic acid

> <PUBCHEM_IUPAC_SYSTEMATIC_NAME>
(2S)-2-azanyl-3-[[(2R)-2,3-di(octadecanoyloxy)propoxy]-oxidanyl-phosphoryl]oxy-propanoic acid

> <PUBCHEM_IUPAC_TRADITIONAL_NAME>
(2S)-2-amino-3-[[(2R)-2,3-distearoyloxypropoxy]-hydroxy-phosphoryl]oxy-propionic acid

> <PUBCHEM_IUPAC_INCHI>
InChI=1S/C42H82NO10P/c1-3-5-7-9-11-13-15-17-19-21-23-25-27-29-31-33-40(44)50-35-38(36-51-54(48,49)52-37-39(43)42(46)47)53-41(45)34-32-30-28-26-24-22-20-18-16-14-12-10-8-6-4-2/h38-39H,3-37,43H2,1-2H3,(H,46,47)(H,48,49)/t38-,39+/m1/s1

> <PUBCHEM_IUPAC_INCHIKEY>
TZCPCKNHXULUIY-RGULYWFUSA-N

> <PUBCHEM_XLOGP3_AA>
12.1

> <PUBCHEM_EXACT_MASS>
791.56763481

> <PUBCHEM_MOLECULAR_FORMULA>
C42H82NO10P

> <PUBCHEM_MOLECULAR_WEIGHT>
792.1

> <PUBCHEM_SMILES>
CCCCCCCCCCCCCCCCCC(=O)OC[C@H](COP(=O)(O)OC[C@@H](C(=O)O)N)OC(=O)CCCCCCCCCCCCCCCCC

> <PUBCHEM_CONNECTIVITY_SMILES>
CCCCCCCCCCCCCCCCCC(=O)OCC(COP(=O)(O)OCC(C(=O)O)N)OC(=O)CCCCCCCCCCCCCCCCC

> <PUBCHEM_CACTVS_TPSA>
172

> <PUBCHEM_MONOISOTOPIC_WEIGHT>
791.56763481

> <PUBCHEM_TOTAL_CHARGE>
0

> <PUBCHEM_HEAVY_ATOM_COUNT>
54

> <PUBCHEM_ATOM_DEF_STEREO_COUNT>
2

> <PUBCHEM_ATOM_UDEF_STEREO_COUNT>
0

> <PUBCHEM_BOND_DEF_STEREO_COUNT>
0

> <PUBCHEM_BOND_UDEF_STEREO_COUNT>
0

> <PUBCHEM_ISOTOPIC_ATOM_COUNT>
0

> <PUBCHEM_COMPONENT_COUNT>
1

> <PUBCHEM_CACTVS_TAUTO_COUNT>
-1

> <PUBCHEM_COORDINATE_TYPE>
1
5
255

> <PUBCHEM_BONDANNOTATIONS>
53  12  6
49  2  5

$$$$
